
     Program PWSCF v.7.0 starts on 12Mar2022 at 14:45:19 

     This program is part of the open-source Quantum ESPRESSO suite
     for quantum simulation of materials; please cite
         "P. Giannozzi et al., J. Phys.:Condens. Matter 21 395502 (2009);
         "P. Giannozzi et al., J. Phys.:Condens. Matter 29 465901 (2017);
         "P. Giannozzi et al., J. Chem. Phys. 152 154105 (2020);
          URL http://www.quantum-espresso.org", 
     in publications or presentations arising from this work. More details at
     http://www.quantum-espresso.org/quote

     Parallel version (MPI), running on     1 processors

     MPI processes distributed on     1 nodes
     544 MiB available memory on the printing compute node when the environment starts

     Waiting for input...
     Reading input from standard input

     Current dimensions of program PWSCF are:
     Max number of different atomic species (ntypx) = 10
     Max number of k-points (npk) =  40000
     Max angular momentum in pseudopotentials (lmaxx) =  4
   CREATING PLUMED FROM THE PROGRAM

     Subspace diagonalization in iterative solution of the eigenvalue problem:
     a serial algorithm will be used


     G-vector sticks info
     --------------------
     sticks:   dense  smooth     PW     G-vecs:    dense   smooth      PW
     Sum         121     121     31                  869      869     113

     Using Slab Decomposition



     bravais-lattice index     =            2
     lattice parameter (alat)  =      10.1800  a.u.
     unit-cell volume          =     263.7445 (a.u.)^3
     number of atoms/cell      =            2
     number of atomic types    =            1
     number of electrons       =         8.00
     number of Kohn-Sham states=            4
     kinetic-energy cutoff     =       8.0000  Ry
     charge density cutoff     =      32.0000  Ry
     scf convergence threshold =      1.0E-08
     mixing beta               =       0.7000
     number of iterations used =            8  plain     mixing
     energy convergence thresh.=      0.0E+00
     force convergence thresh. =      0.0E+00
     Exchange-correlation=  SLA  PZ   NOGX NOGC
                           (   1   1   0   0   0   0   0)
     nstep                     =           50


     celldm(1)=  10.180000  celldm(2)=   0.000000  celldm(3)=   0.000000
     celldm(4)=   0.000000  celldm(5)=   0.000000  celldm(6)=   0.000000

     crystal axes: (cart. coord. in units of alat)
               a(1) = (  -0.500000   0.000000   0.500000 )  
               a(2) = (   0.000000   0.500000   0.500000 )  
               a(3) = (  -0.500000   0.500000   0.000000 )  

     reciprocal axes: (cart. coord. in units 2 pi/alat)
               b(1) = ( -1.000000 -1.000000  1.000000 )  
               b(2) = (  1.000000  1.000000  1.000000 )  
               b(3) = ( -1.000000  1.000000 -1.000000 )  


     PseudoPot. # 1 for Si read from file:
     /home/ralf/espresso/pseudo/Si.pz-vbc.UPF
     MD5 check sum: c7253077ba58528355163ec29b6b8d4c
     Pseudo is Norm-conserving, Zval =  4.0
     Generated by new atomic code, or converted to UPF format
     Using radial grid of  431 points,  2 beta functions with: 
                l(1) =   0
                l(2) =   1

     atomic species   valence    mass     pseudopotential
        Si             4.00    28.08600     Si( 1.00)

     No symmetry found



   Cartesian axes

     site n.     atom                  positions (alat units)
         1           Si  tau(   1) = (  -0.1230000  -0.1230000  -0.1230000  )
         2           Si  tau(   2) = (   0.1230000   0.1230000   0.1230000  )

     number of k points=     1
                       cart. coord. in units 2pi/alat
        k(    1) = (   0.0000000   0.0000000   0.0000000), wk =   2.0000000

     Dense  grid:      869 G-vectors     FFT dimensions: (  15,  15,  15)

     Estimated max dynamical RAM per process >       0.68 MB

     Initial potential from superposition of free atoms

     starting charge       7.9990, renormalised to       8.0000
     Starting wfcs are    8 randomized atomic wfcs

     total cpu time spent up to now is        0.0 secs

     Self-consistent Calculation

     iteration #  1     ecut=     8.00 Ry     beta= 0.70
     Davidson diagonalization with overlap
     ethr =  1.00E-02,  avg # of iterations =  2.0

     total cpu time spent up to now is        0.0 secs

     total energy              =     -14.43353780 Ry
     estimated scf accuracy    <       0.31769257 Ry

     iteration #  2     ecut=     8.00 Ry     beta= 0.70
     Davidson diagonalization with overlap
     ethr =  3.97E-03,  avg # of iterations =  1.0

     total cpu time spent up to now is        0.0 secs

     total energy              =     -14.44674327 Ry
     estimated scf accuracy    <       0.01178289 Ry

     iteration #  3     ecut=     8.00 Ry     beta= 0.70
     Davidson diagonalization with overlap
     ethr =  1.47E-04,  avg # of iterations =  2.0

     total cpu time spent up to now is        0.0 secs

     total energy              =     -14.44791655 Ry
     estimated scf accuracy    <       0.00025720 Ry

     iteration #  4     ecut=     8.00 Ry     beta= 0.70
     Davidson diagonalization with overlap
     ethr =  3.21E-06,  avg # of iterations =  1.0

     total cpu time spent up to now is        0.0 secs

     total energy              =     -14.44793150 Ry
     estimated scf accuracy    <       0.00000093 Ry

     iteration #  5     ecut=     8.00 Ry     beta= 0.70
     Davidson diagonalization with overlap
     ethr =  1.16E-08,  avg # of iterations = 11.0

     total cpu time spent up to now is        0.0 secs

     total energy              =     -14.44793759 Ry
     estimated scf accuracy    <       0.00000256 Ry

     iteration #  6     ecut=     8.00 Ry     beta= 0.70
     Davidson diagonalization with overlap
     ethr =  1.16E-08,  avg # of iterations =  1.0

     total cpu time spent up to now is        0.0 secs

     total energy              =     -14.44793730 Ry
     estimated scf accuracy    <       0.00000205 Ry

     iteration #  7     ecut=     8.00 Ry     beta= 0.70
     Davidson diagonalization with overlap
     ethr =  1.16E-08,  avg # of iterations =  1.0

     total cpu time spent up to now is        0.0 secs

     total energy              =     -14.44793714 Ry
     estimated scf accuracy    <       0.00000071 Ry

     iteration #  8     ecut=     8.00 Ry     beta= 0.70
     Davidson diagonalization with overlap
     ethr =  8.87E-09,  avg # of iterations =  3.0

     total cpu time spent up to now is        0.0 secs

     total energy              =     -14.44793734 Ry
     estimated scf accuracy    <       0.00000010 Ry

     iteration #  9     ecut=     8.00 Ry     beta= 0.70
     Davidson diagonalization with overlap
     ethr =  1.27E-09,  avg # of iterations =  2.0

     total cpu time spent up to now is        0.0 secs

     total energy              =     -14.44793733 Ry
     estimated scf accuracy    <       0.00000008 Ry

     iteration # 10     ecut=     8.00 Ry     beta= 0.70
     Davidson diagonalization with overlap
     ethr =  9.41E-10,  avg # of iterations =  1.0

     total cpu time spent up to now is        0.0 secs

     total energy              =     -14.44793733 Ry
     estimated scf accuracy    <       0.00000001 Ry

     iteration # 11     ecut=     8.00 Ry     beta= 0.70
     Davidson diagonalization with overlap
     ethr =  1.73E-10,  avg # of iterations =  4.0

     total cpu time spent up to now is        0.0 secs

     End of self-consistent calculation

          k = 0.0000 0.0000 0.0000 (   113 PWs)   bands (ev):

    -4.7639   7.1610   7.5134   7.5134

     highest occupied level (ev):     7.5134

!    total energy              =     -14.44793733 Ry
     estimated scf accuracy    <          2.7E-09 Ry

     convergence has been achieved in  11 iterations

     Forces acting on atoms (cartesian axes, Ry/au):

     atom    1 type  1   force =    -0.02329809   -0.02329795   -0.02329799
     atom    2 type  1   force =     0.02329809    0.02329795    0.02329799

     Total force =     0.057068     Total SCF correction =     0.000008

     Molecular Dynamics Calculation
     mass Si               =    28.09
     Time step             =    20.00 a.u.,  0.9676 femto-seconds

     Entering Dynamics:    iteration =     1
                           time      =   0.0010 pico-seconds


ATOMIC_POSITIONS (alat)
Si           -0.1230176169       -0.1230176168       -0.1230176168
Si            0.1230176169        0.1230176168        0.1230176168


     kinetic energy (Ekin) =           0.00000000 Ry
     temperature           =           0.00000000 K 
     Ekin + Etot (const)   =         -14.44793733 Ry

     Linear momentum :    0.0000000000    0.0000000000    0.0000000000

     Writing config-only to output data dir ./pwscf.save/
     NEW-OLD atomic charge density approx. for the potential

     total cpu time spent up to now is        0.1 secs

     Self-consistent Calculation

     iteration #  1     ecut=     8.00 Ry     beta= 0.70
     Davidson diagonalization with overlap
     ethr =  1.00E-06,  avg # of iterations =  1.0

     Threshold (ethr) on eigenvalues was too large:
     Diagonalizing with lowered threshold

     Davidson diagonalization with overlap
     ethr =  1.45E-10,  avg # of iterations =  2.0

     total cpu time spent up to now is        0.1 secs

     End of self-consistent calculation

          k = 0.0000 0.0000 0.0000 (   113 PWs)   bands (ev):

    -4.7639   7.1629   7.5124   7.5124

     highest occupied level (ev):     7.5124

!    total energy              =     -14.44796229 Ry
     estimated scf accuracy    <          9.4E-09 Ry

     convergence has been achieved in   1 iterations

     Forces acting on atoms (cartesian axes, Ry/au):

     atom    1 type  1   force =    -0.02308496   -0.02308548   -0.02308585
     atom    2 type  1   force =     0.02308496    0.02308548    0.02308585

     Total force =     0.056548     Total SCF correction =     0.000031

     Entering Dynamics:    iteration =     2
                           time      =   0.0019 pico-seconds


ATOMIC_POSITIONS (alat)
Si           -0.1230701397       -0.1230701403       -0.1230701409
Si            0.1230701397        0.1230701403        0.1230701409


     kinetic energy (Ekin) =           0.00002447 Ry
     temperature           =           2.57578168 K 
     Ekin + Etot (const)   =         -14.44793782 Ry

     Linear momentum :    0.0000000000    0.0000000000    0.0000000000

     Writing config-only to output data dir ./pwscf.save/
     NEW-OLD atomic charge density approx. for the potential

     total cpu time spent up to now is        0.1 secs

     Self-consistent Calculation

     iteration #  1     ecut=     8.00 Ry     beta= 0.70
     Davidson diagonalization with overlap
     ethr =  1.00E-06,  avg # of iterations =  1.0

     Threshold (ethr) on eigenvalues was too large:
     Diagonalizing with lowered threshold

     Davidson diagonalization with overlap
     ethr =  1.16E-09,  avg # of iterations =  2.0

     total cpu time spent up to now is        0.1 secs

     total energy              =     -14.44803534 Ry
     estimated scf accuracy    <       0.00000007 Ry

     iteration #  2     ecut=     8.00 Ry     beta= 0.70
     Davidson diagonalization with overlap
     ethr =  9.00E-10,  avg # of iterations =  2.0

     total cpu time spent up to now is        0.1 secs

     End of self-consistent calculation

          k = 0.0000 0.0000 0.0000 (   113 PWs)   bands (ev):

    -4.7637   7.1693   7.5092   7.5092

     highest occupied level (ev):     7.5092

!    total energy              =     -14.44803535 Ry
     estimated scf accuracy    <          6.5E-09 Ry

     convergence has been achieved in   2 iterations

     Forces acting on atoms (cartesian axes, Ry/au):

     atom    1 type  1   force =    -0.02245194   -0.02245197   -0.02245195
     atom    2 type  1   force =     0.02245194    0.02245197    0.02245195

     Total force =     0.054996     Total SCF correction =     0.000017

     Entering Dynamics:    iteration =     3
                           time      =   0.0029 pico-seconds


ATOMIC_POSITIONS (alat)
Si           -0.1231565952       -0.1231565965       -0.1231565977
Si            0.1231565952        0.1231565965        0.1231565977


     kinetic energy (Ekin) =           0.00009608 Ry
     temperature           =          10.11290665 K 
     Ekin + Etot (const)   =         -14.44793927 Ry

     Linear momentum :    0.0000000000    0.0000000000    0.0000000000

     Writing config-only to output data dir ./pwscf.save/
     NEW-OLD atomic charge density approx. for the potential

     total cpu time spent up to now is        0.1 secs

     Self-consistent Calculation

     iteration #  1     ecut=     8.00 Ry     beta= 0.70
     Davidson diagonalization with overlap
     ethr =  1.00E-06,  avg # of iterations =  1.0

     Threshold (ethr) on eigenvalues was too large:
     Diagonalizing with lowered threshold

     Davidson diagonalization with overlap
     ethr =  3.41E-09,  avg # of iterations =  2.0

     total cpu time spent up to now is        0.1 secs

     total energy              =     -14.44815119 Ry
     estimated scf accuracy    <       0.00000021 Ry

     iteration #  2     ecut=     8.00 Ry     beta= 0.70
     Davidson diagonalization with overlap
     ethr =  2.62E-09,  avg # of iterations =  2.0

     total cpu time spent up to now is        0.1 secs

     total energy              =     -14.44815122 Ry
     estimated scf accuracy    <       0.00000002 Ry

     iteration #  3     ecut=     8.00 Ry     beta= 0.70
     Davidson diagonalization with overlap
     ethr =  2.15E-10,  avg # of iterations =  1.0

     total cpu time spent up to now is        0.1 secs

     End of self-consistent calculation

          k = 0.0000 0.0000 0.0000 (   113 PWs)   bands (ev):

    -4.7635   7.1793   7.5040   7.5040

     highest occupied level (ev):     7.5040

!    total energy              =     -14.44815122 Ry
     estimated scf accuracy    <          6.0E-10 Ry

     convergence has been achieved in   3 iterations

     Forces acting on atoms (cartesian axes, Ry/au):

     atom    1 type  1   force =    -0.02142257   -0.02142252   -0.02142252
     atom    2 type  1   force =     0.02142257    0.02142252    0.02142252

     Total force =     0.052474     Total SCF correction =     0.000007

     Entering Dynamics:    iteration =     4
                           time      =   0.0039 pico-seconds


ATOMIC_POSITIONS (alat)
Si           -0.1232754004       -0.1232754024       -0.1232754041
Si            0.1232754004        0.1232754024        0.1232754041


     kinetic energy (Ekin) =           0.00020957 Ry
     temperature           =          22.05922521 K 
     Ekin + Etot (const)   =         -14.44794164 Ry

     Linear momentum :    0.0000000000    0.0000000000    0.0000000000

     Writing config-only to output data dir ./pwscf.save/
     NEW-OLD atomic charge density approx. for the potential

     total cpu time spent up to now is        0.1 secs

     Self-consistent Calculation

     iteration #  1     ecut=     8.00 Ry     beta= 0.70
     Davidson diagonalization with overlap
     ethr =  1.00E-06,  avg # of iterations =  2.0

     Threshold (ethr) on eigenvalues was too large:
     Diagonalizing with lowered threshold

     Davidson diagonalization with overlap
     ethr =  5.69E-09,  avg # of iterations =  2.0

     total cpu time spent up to now is        0.1 secs

     total energy              =     -14.44830150 Ry
     estimated scf accuracy    <       0.00000040 Ry

     iteration #  2     ecut=     8.00 Ry     beta= 0.70
     Davidson diagonalization with overlap
     ethr =  4.98E-09,  avg # of iterations =  2.0

     total cpu time spent up to now is        0.1 secs

     total energy              =     -14.44830155 Ry
     estimated scf accuracy    <       0.00000003 Ry

     iteration #  3     ecut=     8.00 Ry     beta= 0.70
     Davidson diagonalization with overlap
     ethr =  4.03E-10,  avg # of iterations =  1.0

     total cpu time spent up to now is        0.1 secs

     End of self-consistent calculation

          k = 0.0000 0.0000 0.0000 (   113 PWs)   bands (ev):

    -4.7632   7.1931   7.4969   7.4969

     highest occupied level (ev):     7.4969

!    total energy              =     -14.44830155 Ry
     estimated scf accuracy    <          1.1E-09 Ry

     convergence has been achieved in   3 iterations

     Forces acting on atoms (cartesian axes, Ry/au):

     atom    1 type  1   force =    -0.02000647   -0.02000644   -0.02000642
     atom    2 type  1   force =     0.02000647    0.02000644    0.02000642

     Total force =     0.049006     Total SCF correction =     0.000010

     Entering Dynamics:    iteration =     5
                           time      =   0.0048 pico-seconds


ATOMIC_POSITIONS (alat)
Si           -0.1234243776       -0.1234243803       -0.1234243825
Si            0.1234243776        0.1234243803        0.1234243825


     kinetic energy (Ekin) =           0.00035669 Ry
     temperature           =          37.54408277 K 
     Ekin + Etot (const)   =         -14.44794487 Ry

     Linear momentum :    0.0000000000    0.0000000000    0.0000000000

     Writing config-only to output data dir ./pwscf.save/
     NEW-OLD atomic charge density approx. for the potential

     total cpu time spent up to now is        0.1 secs

     Self-consistent Calculation

     iteration #  1     ecut=     8.00 Ry     beta= 0.70
     Davidson diagonalization with overlap
     ethr =  1.00E-06,  avg # of iterations =  2.0

     Threshold (ethr) on eigenvalues was too large:
     Diagonalizing with lowered threshold

     Davidson diagonalization with overlap
     ethr =  8.95E-09,  avg # of iterations =  2.0

     total cpu time spent up to now is        0.1 secs

     total energy              =     -14.44847551 Ry
     estimated scf accuracy    <       0.00000063 Ry

     iteration #  2     ecut=     8.00 Ry     beta= 0.70
     Davidson diagonalization with overlap
     ethr =  7.83E-09,  avg # of iterations =  2.0

     total cpu time spent up to now is        0.1 secs

     total energy              =     -14.44847559 Ry
     estimated scf accuracy    <       0.00000005 Ry

     iteration #  3     ecut=     8.00 Ry     beta= 0.70
     Davidson diagonalization with overlap
     ethr =  6.31E-10,  avg # of iterations =  1.0

     total cpu time spent up to now is        0.1 secs

     End of self-consistent calculation

          k = 0.0000 0.0000 0.0000 (   113 PWs)   bands (ev):

    -4.7629   7.2105   7.4881   7.4881

     highest occupied level (ev):     7.4881

!    total energy              =     -14.44847559 Ry
     estimated scf accuracy    <          1.8E-09 Ry

     convergence has been achieved in   3 iterations

     Forces acting on atoms (cartesian axes, Ry/au):

     atom    1 type  1   force =    -0.01823786   -0.01823783   -0.01823780
     atom    2 type  1   force =     0.01823786    0.01823783    0.01823780

     Total force =     0.044673     Total SCF correction =     0.000013

     Entering Dynamics:    iteration =     6
                           time      =   0.0058 pico-seconds


ATOMIC_POSITIONS (alat)
Si           -0.1236008073       -0.1236008106       -0.1236008133
Si            0.1236008073        0.1236008106        0.1236008133


     kinetic energy (Ekin) =           0.00052671 Ry
     temperature           =          55.44087462 K 
     Ekin + Etot (const)   =         -14.44794888 Ry

     Linear momentum :    0.0000000000    0.0000000000    0.0000000000

     Writing config-only to output data dir ./pwscf.save/
     NEW-OLD atomic charge density approx. for the potential

     total cpu time spent up to now is        0.1 secs

     Self-consistent Calculation

     iteration #  1     ecut=     8.00 Ry     beta= 0.70
     Davidson diagonalization with overlap
     ethr =  1.00E-06,  avg # of iterations =  2.0

     Threshold (ethr) on eigenvalues was too large:
     Diagonalizing with lowered threshold

     Davidson diagonalization with overlap
     ethr =  1.26E-08,  avg # of iterations =  2.0

     total cpu time spent up to now is        0.1 secs

     total energy              =     -14.44866082 Ry
     estimated scf accuracy    <       0.00000088 Ry

     iteration #  2     ecut=     8.00 Ry     beta= 0.70
     Davidson diagonalization with overlap
     ethr =  1.10E-08,  avg # of iterations =  2.0

     total cpu time spent up to now is        0.1 secs

     total energy              =     -14.44866094 Ry
     estimated scf accuracy    <       0.00000007 Ry

     iteration #  3     ecut=     8.00 Ry     beta= 0.70
     Davidson diagonalization with overlap
     ethr =  8.83E-10,  avg # of iterations =  1.0

     total cpu time spent up to now is        0.1 secs

     End of self-consistent calculation

          k = 0.0000 0.0000 0.0000 (   113 PWs)   bands (ev):

    -4.7625   7.2311   7.4776   7.4776

     highest occupied level (ev):     7.4776

!    total energy              =     -14.44866094 Ry
     estimated scf accuracy    <          2.5E-09 Ry

     convergence has been achieved in   3 iterations

     Forces acting on atoms (cartesian axes, Ry/au):

     atom    1 type  1   force =    -0.01615340   -0.01615336   -0.01615333
     atom    2 type  1   force =     0.01615340    0.01615336    0.01615333

     Total force =     0.039567     Total SCF correction =     0.000015

     Entering Dynamics:    iteration =     7
                           time      =   0.0068 pico-seconds


ATOMIC_POSITIONS (alat)
Si           -0.1238014840       -0.1238014878       -0.1238014910
Si            0.1238014840        0.1238014878        0.1238014910


     kinetic energy (Ekin) =           0.00070737 Ry
     temperature           =          74.45665814 K 
     Ekin + Etot (const)   =         -14.44795357 Ry

     Linear momentum :    0.0000000000    0.0000000000    0.0000000000

     Writing config-only to output data dir ./pwscf.save/
     NEW-OLD atomic charge density approx. for the potential

     total cpu time spent up to now is        0.1 secs

     Self-consistent Calculation

     iteration #  1     ecut=     8.00 Ry     beta= 0.70
     Davidson diagonalization with overlap
     ethr =  1.00E-06,  avg # of iterations =  2.0

     Threshold (ethr) on eigenvalues was too large:
     Diagonalizing with lowered threshold

     Davidson diagonalization with overlap
     ethr =  1.63E-08,  avg # of iterations =  2.0

     total cpu time spent up to now is        0.1 secs

     total energy              =     -14.44884439 Ry
     estimated scf accuracy    <       0.00000114 Ry

     iteration #  2     ecut=     8.00 Ry     beta= 0.70
     Davidson diagonalization with overlap
     ethr =  1.42E-08,  avg # of iterations =  2.0

     total cpu time spent up to now is        0.1 secs

     total energy              =     -14.44884455 Ry
     estimated scf accuracy    <       0.00000009 Ry

     iteration #  3     ecut=     8.00 Ry     beta= 0.70
     Davidson diagonalization with overlap
     ethr =  1.14E-09,  avg # of iterations =  1.0

     total cpu time spent up to now is        0.1 secs

     End of self-consistent calculation

          k = 0.0000 0.0000 0.0000 (   113 PWs)   bands (ev):

    -4.7622   7.2545   7.4656   7.4656

     highest occupied level (ev):     7.4656

!    total energy              =     -14.44884455 Ry
     estimated scf accuracy    <          3.3E-09 Ry

     convergence has been achieved in   3 iterations

     Forces acting on atoms (cartesian axes, Ry/au):

     atom    1 type  1   force =    -0.01379547   -0.01379543   -0.01379539
     atom    2 type  1   force =     0.01379547    0.01379543    0.01379539

     Total force =     0.033792     Total SCF correction =     0.000018

     Entering Dynamics:    iteration =     8
                           time      =   0.0077 pico-seconds


ATOMIC_POSITIONS (alat)
Si           -0.1240227817       -0.1240227860       -0.1240227895
Si            0.1240227817        0.1240227860        0.1240227895


     kinetic energy (Ekin) =           0.00088571 Ry
     temperature           =          93.22825486 K 
     Ekin + Etot (const)   =         -14.44795884 Ry

     Linear momentum :    0.0000000000    0.0000000000    0.0000000000

     Writing config-only to output data dir ./pwscf.save/
     NEW-OLD atomic charge density approx. for the potential

     total cpu time spent up to now is        0.1 secs

     Self-consistent Calculation

     iteration #  1     ecut=     8.00 Ry     beta= 0.70
     Davidson diagonalization with overlap
     ethr =  1.00E-06,  avg # of iterations =  2.0

     Threshold (ethr) on eigenvalues was too large:
     Diagonalizing with lowered threshold

     Davidson diagonalization with overlap
     ethr =  1.86E-08,  avg # of iterations =  1.0

     total cpu time spent up to now is        0.1 secs

     total energy              =     -14.44901344 Ry
     estimated scf accuracy    <       0.00000139 Ry

     iteration #  2     ecut=     8.00 Ry     beta= 0.70
     Davidson diagonalization with overlap
     ethr =  1.74E-08,  avg # of iterations =  2.0

     total cpu time spent up to now is        0.1 secs

     total energy              =     -14.44901362 Ry
     estimated scf accuracy    <       0.00000011 Ry

     iteration #  3     ecut=     8.00 Ry     beta= 0.70
     Davidson diagonalization with overlap
     ethr =  1.38E-09,  avg # of iterations =  1.0

     total cpu time spent up to now is        0.1 secs

     End of self-consistent calculation

          k = 0.0000 0.0000 0.0000 (   113 PWs)   bands (ev):

    -4.7619   7.2804   7.4525   7.4525

     highest occupied level (ev):     7.4525

!    total energy              =     -14.44901363 Ry
     estimated scf accuracy    <          4.0E-09 Ry

     convergence has been achieved in   3 iterations

     Forces acting on atoms (cartesian axes, Ry/au):

     atom    1 type  1   force =    -0.01121103   -0.01121098   -0.01121094
     atom    2 type  1   force =     0.01121103    0.01121098    0.01121094

     Total force =     0.027461     Total SCF correction =     0.000020

     Entering Dynamics:    iteration =     9
                           time      =   0.0087 pico-seconds


ATOMIC_POSITIONS (alat)
Si           -0.1242607262       -0.1242607308       -0.1242607347
Si            0.1242607262        0.1242607308        0.1242607347


     kinetic energy (Ekin) =           0.00104906 Ry
     temperature           =         110.42270867 K 
     Ekin + Etot (const)   =         -14.44796456 Ry

     Linear momentum :    0.0000000000    0.0000000000    0.0000000000

     Writing config-only to output data dir ./pwscf.save/
     NEW-OLD atomic charge density approx. for the potential

     total cpu time spent up to now is        0.1 secs

     Self-consistent Calculation

     iteration #  1     ecut=     8.00 Ry     beta= 0.70
     Davidson diagonalization with overlap
     ethr =  1.00E-06,  avg # of iterations =  2.0

     Threshold (ethr) on eigenvalues was too large:
     Diagonalizing with lowered threshold

     Davidson diagonalization with overlap
     ethr =  2.15E-08,  avg # of iterations =  1.0

     total cpu time spent up to now is        0.1 secs

     total energy              =     -14.44915637 Ry
     estimated scf accuracy    <       0.00000161 Ry

     iteration #  2     ecut=     8.00 Ry     beta= 0.70
     Davidson diagonalization with overlap
     ethr =  2.01E-08,  avg # of iterations =  2.0

     total cpu time spent up to now is        0.1 secs

     total energy              =     -14.44915658 Ry
     estimated scf accuracy    <       0.00000013 Ry

     iteration #  3     ecut=     8.00 Ry     beta= 0.70
     Davidson diagonalization with overlap
     ethr =  1.59E-09,  avg # of iterations =  1.0

     total cpu time spent up to now is        0.1 secs

     End of self-consistent calculation

          k = 0.0000 0.0000 0.0000 (   113 PWs)   bands (ev):

    -4.7616   7.3082   7.4384   7.4384

     highest occupied level (ev):     7.4384

!    total energy              =     -14.44915659 Ry
     estimated scf accuracy    <          4.7E-09 Ry

     convergence has been achieved in   3 iterations

     Forces acting on atoms (cartesian axes, Ry/au):

     atom    1 type  1   force =    -0.00845038   -0.00845033   -0.00845028
     atom    2 type  1   force =     0.00845038    0.00845033    0.00845028

     Total force =     0.020699     Total SCF correction =     0.000021

     Entering Dynamics:    iteration =    10
                           time      =   0.0097 pico-seconds


ATOMIC_POSITIONS (alat)
Si           -0.1245110719       -0.1245110769       -0.1245110810
Si            0.1245110719        0.1245110769        0.1245110810


     kinetic energy (Ekin) =           0.00118597 Ry
     temperature           =         124.83332400 K 
     Ekin + Etot (const)   =         -14.44797062 Ry

     Linear momentum :    0.0000000000    0.0000000000    0.0000000000

     Writing config-only to output data dir ./pwscf.save/
     NEW-OLD atomic charge density approx. for the potential

     total cpu time spent up to now is        0.2 secs

     Self-consistent Calculation

     iteration #  1     ecut=     8.00 Ry     beta= 0.70
     Davidson diagonalization with overlap
     ethr =  1.00E-06,  avg # of iterations =  2.0

     Threshold (ethr) on eigenvalues was too large:
     Diagonalizing with lowered threshold

     Davidson diagonalization with overlap
     ethr =  2.39E-08,  avg # of iterations =  1.0

     total cpu time spent up to now is        0.2 secs

     total energy              =     -14.44926360 Ry
     estimated scf accuracy    <       0.00000178 Ry

     iteration #  2     ecut=     8.00 Ry     beta= 0.70
     Davidson diagonalization with overlap
     ethr =  2.23E-08,  avg # of iterations =  2.0

     total cpu time spent up to now is        0.2 secs

     total energy              =     -14.44926384 Ry
     estimated scf accuracy    <       0.00000014 Ry

     iteration #  3     ecut=     8.00 Ry     beta= 0.70
     Davidson diagonalization with overlap
     ethr =  1.75E-09,  avg # of iterations =  1.0

     total cpu time spent up to now is        0.2 secs

     End of self-consistent calculation

          k = 0.0000 0.0000 0.0000 (   113 PWs)   bands (ev):

    -4.7614   7.3376   7.4236   7.4236

     highest occupied level (ev):     7.4236

!    total energy              =     -14.44926385 Ry
     estimated scf accuracy    <          5.3E-09 Ry

     convergence has been achieved in   3 iterations

     Forces acting on atoms (cartesian axes, Ry/au):

     atom    1 type  1   force =    -0.00556590   -0.00556584   -0.00556579
     atom    2 type  1   force =     0.00556590    0.00556584    0.00556579

     Total force =     0.013633     Total SCF correction =     0.000023

     Entering Dynamics:    iteration =    11
                           time      =   0.0106 pico-seconds


ATOMIC_POSITIONS (alat)
Si           -0.1247693832       -0.1247693884       -0.1247693927
Si            0.1247693832        0.1247693884        0.1247693927


     kinetic energy (Ekin) =           0.00128697 Ry
     temperature           =         135.46410637 K 
     Ekin + Etot (const)   =         -14.44797688 Ry

     Linear momentum :    0.0000000000    0.0000000000    0.0000000000

     Writing config-only to output data dir ./pwscf.save/
     NEW-OLD atomic charge density approx. for the potential

     total cpu time spent up to now is        0.2 secs

     Self-consistent Calculation

     iteration #  1     ecut=     8.00 Ry     beta= 0.70
     Davidson diagonalization with overlap
     ethr =  1.00E-06,  avg # of iterations =  2.0

     Threshold (ethr) on eigenvalues was too large:
     Diagonalizing with lowered threshold

     Davidson diagonalization with overlap
     ethr =  2.54E-08,  avg # of iterations =  1.0

     total cpu time spent up to now is        0.2 secs

     total energy              =     -14.44932820 Ry
     estimated scf accuracy    <       0.00000190 Ry

     iteration #  2     ecut=     8.00 Ry     beta= 0.70
     Davidson diagonalization with overlap
     ethr =  2.38E-08,  avg # of iterations =  2.0

     total cpu time spent up to now is        0.2 secs

     total energy              =     -14.44932845 Ry
     estimated scf accuracy    <       0.00000015 Ry

     iteration #  3     ecut=     8.00 Ry     beta= 0.70
     Davidson diagonalization with overlap
     ethr =  1.85E-09,  avg # of iterations =  1.0

     total cpu time spent up to now is        0.2 secs

     End of self-consistent calculation

          k = 0.0000 0.0000 0.0000 (   113 PWs)   bands (ev):

    -4.7613   7.3679   7.4084   7.4084

     highest occupied level (ev):     7.4084

!    total energy              =     -14.44932845 Ry
     estimated scf accuracy    <          5.6E-09 Ry

     convergence has been achieved in   3 iterations

     Forces acting on atoms (cartesian axes, Ry/au):

     atom    1 type  1   force =    -0.00261086   -0.00261080   -0.00261076
     atom    2 type  1   force =     0.00261086    0.00261080    0.00261076

     Total force =     0.006395     Total SCF correction =     0.000024

     Entering Dynamics:    iteration =    12
                           time      =   0.0116 pico-seconds


ATOMIC_POSITIONS (alat)
Si           -0.1250311154       -0.1250311208       -0.1250311252
Si            0.1250311154        0.1250311208        0.1250311252


     kinetic energy (Ekin) =           0.00134523 Ry
     temperature           =         141.59673886 K 
     Ekin + Etot (const)   =         -14.44798322 Ry

     Linear momentum :    0.0000000000    0.0000000000    0.0000000000

     Writing config-only to output data dir ./pwscf.save/
     NEW-OLD atomic charge density approx. for the potential

     total cpu time spent up to now is        0.2 secs

     Self-consistent Calculation

     iteration #  1     ecut=     8.00 Ry     beta= 0.70
     Davidson diagonalization with overlap
     ethr =  1.00E-06,  avg # of iterations =  2.0

     Threshold (ethr) on eigenvalues was too large:
     Diagonalizing with lowered threshold

     Davidson diagonalization with overlap
     ethr =  2.62E-08,  avg # of iterations =  1.0

     total cpu time spent up to now is        0.2 secs

     total energy              =     -14.44934627 Ry
     estimated scf accuracy    <       0.00000196 Ry

     iteration #  2     ecut=     8.00 Ry     beta= 0.70
     Davidson diagonalization with overlap
     ethr =  2.45E-08,  avg # of iterations =  2.0

     total cpu time spent up to now is        0.2 secs

     total energy              =     -14.44934653 Ry
     estimated scf accuracy    <       0.00000015 Ry

     iteration #  3     ecut=     8.00 Ry     beta= 0.70
     Davidson diagonalization with overlap
     ethr =  1.89E-09,  avg # of iterations =  1.0

     total cpu time spent up to now is        0.2 secs

     End of self-consistent calculation

          k = 0.0000 0.0000 0.0000 (   113 PWs)   bands (ev):

    -4.7612   7.3930   7.3930   7.3987

     highest occupied level (ev):     7.3987

!    total energy              =     -14.44934654 Ry
     estimated scf accuracy    <          5.9E-09 Ry

     convergence has been achieved in   3 iterations

     Forces acting on atoms (cartesian axes, Ry/au):

     atom    1 type  1   force =     0.00036164    0.00036170    0.00036175
     atom    2 type  1   force =    -0.00036164   -0.00036170   -0.00036175

     Total force =     0.000886     Total SCF correction =     0.000025

     Entering Dynamics:    iteration =    13
                           time      =   0.0126 pico-seconds


ATOMIC_POSITIONS (alat)
Si           -0.1252916986       -0.1252928917       -0.1252928961
Si            0.1252916986        0.1252928917        0.1252928961


     kinetic energy (Ekin) =           0.00136113 Ry
     temperature           =         143.27011490 K 
     Ekin + Etot (const)   =         -14.44798541 Ry

     Linear momentum :    0.0000000000    0.0000000000    0.0000000000

     Writing config-only to output data dir ./pwscf.save/
     NEW-OLD atomic charge density approx. for the potential

     total cpu time spent up to now is        0.2 secs

     Self-consistent Calculation

     iteration #  1     ecut=     8.00 Ry     beta= 0.70
     Davidson diagonalization with overlap
     ethr =  1.00E-06,  avg # of iterations =  2.0

     Threshold (ethr) on eigenvalues was too large:
     Diagonalizing with lowered threshold

     Davidson diagonalization with overlap
     ethr =  2.61E-08,  avg # of iterations =  1.0

     total cpu time spent up to now is        0.2 secs

     total energy              =     -14.44931709 Ry
     estimated scf accuracy    <       0.00000196 Ry

     iteration #  2     ecut=     8.00 Ry     beta= 0.70
     Davidson diagonalization with overlap
     ethr =  2.45E-08,  avg # of iterations =  2.0

     total cpu time spent up to now is        0.2 secs

     total energy              =     -14.44931735 Ry
     estimated scf accuracy    <       0.00000015 Ry

     iteration #  3     ecut=     8.00 Ry     beta= 0.70
     Davidson diagonalization with overlap
     ethr =  1.87E-09,  avg # of iterations =  1.0

     total cpu time spent up to now is        0.2 secs

     End of self-consistent calculation

          k = 0.0000 0.0000 0.0000 (   113 PWs)   bands (ev):

    -4.7613   7.3776   7.3777   7.4295

     highest occupied level (ev):     7.4295

!    total energy              =     -14.44931735 Ry
     estimated scf accuracy    <          5.9E-09 Ry

     convergence has been achieved in   3 iterations

     Forces acting on atoms (cartesian axes, Ry/au):

     atom    1 type  1   force =     0.00329963    0.00331324    0.00331329
     atom    2 type  1   force =    -0.00329963   -0.00331324   -0.00331329

     Total force =     0.008105     Total SCF correction =     0.000025

     Entering Dynamics:    iteration =    14
                           time      =   0.0135 pico-seconds


ATOMIC_POSITIONS (alat)
Si           -0.1255466242       -0.1255501670       -0.1255501714
Si            0.1255466242        0.1255501670        0.1255501714


     kinetic energy (Ekin) =           0.00133401 Ry
     temperature           =         140.41531405 K 
     Ekin + Etot (const)   =         -14.44798335 Ry

     Linear momentum :    0.0000000000    0.0000000000    0.0000000000

     Writing config-only to output data dir ./pwscf.save/
     NEW-OLD atomic charge density approx. for the potential

     total cpu time spent up to now is        0.2 secs

     Self-consistent Calculation

     iteration #  1     ecut=     8.00 Ry     beta= 0.70
     Davidson diagonalization with overlap
     ethr =  1.00E-06,  avg # of iterations =  2.0

     Threshold (ethr) on eigenvalues was too large:
     Diagonalizing with lowered threshold

     Davidson diagonalization with overlap
     ethr =  2.52E-08,  avg # of iterations =  1.0

     total cpu time spent up to now is        0.2 secs

     total energy              =     -14.44924288 Ry
     estimated scf accuracy    <       0.00000189 Ry

     iteration #  2     ecut=     8.00 Ry     beta= 0.70
     Davidson diagonalization with overlap
     ethr =  2.36E-08,  avg # of iterations =  2.0

     total cpu time spent up to now is        0.2 secs

     total energy              =     -14.44924313 Ry
     estimated scf accuracy    <       0.00000014 Ry

     iteration #  3     ecut=     8.00 Ry     beta= 0.70
     Davidson diagonalization with overlap
     ethr =  1.80E-09,  avg # of iterations =  1.0

     total cpu time spent up to now is        0.2 secs

     End of self-consistent calculation

          k = 0.0000 0.0000 0.0000 (   113 PWs)   bands (ev):

    -4.7614   7.3624   7.3627   7.4598

     highest occupied level (ev):     7.4598

!    total energy              =     -14.44924313 Ry
     estimated scf accuracy    <          5.7E-09 Ry

     convergence has been achieved in   3 iterations

     Forces acting on atoms (cartesian axes, Ry/au):

     atom    1 type  1   force =     0.00615312    0.00619364    0.00619369
     atom    2 type  1   force =    -0.00615312   -0.00619364   -0.00619369

     Total force =     0.015138     Total SCF correction =     0.000025

     Entering Dynamics:    iteration =    15
                           time      =   0.0145 pico-seconds


ATOMIC_POSITIONS (alat)
Si           -0.1257915137       -0.1257985217       -0.1257985260
Si            0.1257915137        0.1257985217        0.1257985260


     kinetic energy (Ekin) =           0.00126200 Ry
     temperature           =         132.83598763 K 
     Ekin + Etot (const)   =         -14.44798113 Ry

     Linear momentum :    0.0000000000    0.0000000000    0.0000000000

     Writing config-only to output data dir ./pwscf.save/
     NEW-OLD atomic charge density approx. for the potential

     total cpu time spent up to now is        0.2 secs

     Self-consistent Calculation

     iteration #  1     ecut=     8.00 Ry     beta= 0.70
     Davidson diagonalization with overlap
     ethr =  1.00E-06,  avg # of iterations =  2.0

     Threshold (ethr) on eigenvalues was too large:
     Diagonalizing with lowered threshold

     Davidson diagonalization with overlap
     ethr =  2.35E-08,  avg # of iterations =  1.0

     total cpu time spent up to now is        0.2 secs

     total energy              =     -14.44912893 Ry
     estimated scf accuracy    <       0.00000176 Ry

     iteration #  2     ecut=     8.00 Ry     beta= 0.70
     Davidson diagonalization with overlap
     ethr =  2.20E-08,  avg # of iterations =  2.0

     total cpu time spent up to now is        0.2 secs

     total energy              =     -14.44912917 Ry
     estimated scf accuracy    <       0.00000013 Ry

     iteration #  3     ecut=     8.00 Ry     beta= 0.70
     Davidson diagonalization with overlap
     ethr =  1.66E-09,  avg # of iterations =  1.0

     total cpu time spent up to now is        0.2 secs

     End of self-consistent calculation

          k = 0.0000 0.0000 0.0000 (   113 PWs)   bands (ev):

    -4.7616   7.3478   7.3484   7.4890

     highest occupied level (ev):     7.4890

!    total energy              =     -14.44912917 Ry
     estimated scf accuracy    <          5.4E-09 Ry

     convergence has been achieved in   3 iterations

     Forces acting on atoms (cartesian axes, Ry/au):

     atom    1 type  1   force =     0.00887495    0.00895533    0.00895538
     atom    2 type  1   force =    -0.00887495   -0.00895533   -0.00895538

     Total force =     0.021871     Total SCF correction =     0.000024

     Entering Dynamics:    iteration =    16
                           time      =   0.0155 pico-seconds


ATOMIC_POSITIONS (alat)
Si           -0.1260221904       -0.1260337133       -0.1260337174
Si            0.1260221904        0.1260337133        0.1260337174


     kinetic energy (Ekin) =           0.00115034 Ry
     temperature           =         121.08336841 K 
     Ekin + Etot (const)   =         -14.44797883 Ry

     Linear momentum :    0.0000000000    0.0000000000    0.0000000000

     Writing config-only to output data dir ./pwscf.save/
     NEW-OLD atomic charge density approx. for the potential

     total cpu time spent up to now is        0.2 secs

     Self-consistent Calculation

     iteration #  1     ecut=     8.00 Ry     beta= 0.70
     Davidson diagonalization with overlap
     ethr =  1.00E-06,  avg # of iterations =  2.0

     Threshold (ethr) on eigenvalues was too large:
     Diagonalizing with lowered threshold

     Davidson diagonalization with overlap
     ethr =  2.10E-08,  avg # of iterations =  1.0

     total cpu time spent up to now is        0.2 secs

     total energy              =     -14.44898318 Ry
     estimated scf accuracy    <       0.00000158 Ry

     iteration #  2     ecut=     8.00 Ry     beta= 0.70
     Davidson diagonalization with overlap
     ethr =  1.97E-08,  avg # of iterations =  2.0

     total cpu time spent up to now is        0.2 secs

     total energy              =     -14.44898339 Ry
     estimated scf accuracy    <       0.00000012 Ry

     iteration #  3     ecut=     8.00 Ry     beta= 0.70
     Davidson diagonalization with overlap
     ethr =  1.48E-09,  avg # of iterations =  1.0

     total cpu time spent up to now is        0.2 secs

     End of self-consistent calculation

          k = 0.0000 0.0000 0.0000 (   113 PWs)   bands (ev):

    -4.7619   7.3340   7.3349   7.5166

     highest occupied level (ev):     7.5166

!    total energy              =     -14.44898340 Ry
     estimated scf accuracy    <          4.8E-09 Ry

     convergence has been achieved in   3 iterations

     Forces acting on atoms (cartesian axes, Ry/au):

     atom    1 type  1   force =     0.01142141    0.01155395    0.01155399
     atom    2 type  1   force =    -0.01142141   -0.01155395   -0.01155399

     Total force =     0.028194     Total SCF correction =     0.000023

     Entering Dynamics:    iteration =    17
                           time      =   0.0164 pico-seconds


ATOMIC_POSITIONS (alat)
Si           -0.1262347468       -0.1262517497       -0.1262517535
Si            0.1262347468        0.1262517497        0.1262517535


     kinetic energy (Ekin) =           0.00100691 Ry
     temperature           =         105.98530491 K 
     Ekin + Etot (const)   =         -14.44797649 Ry

     Linear momentum :    0.0000000000    0.0000000000    0.0000000000

     Writing config-only to output data dir ./pwscf.save/
     NEW-OLD atomic charge density approx. for the potential

     total cpu time spent up to now is        0.3 secs

     Self-consistent Calculation

     iteration #  1     ecut=     8.00 Ry     beta= 0.70
     Davidson diagonalization with overlap
     ethr =  1.00E-06,  avg # of iterations =  2.0

     Threshold (ethr) on eigenvalues was too large:
     Diagonalizing with lowered threshold

     Davidson diagonalization with overlap
     ethr =  1.85E-08,  avg # of iterations =  2.0

     total cpu time spent up to now is        0.3 secs

     total energy              =     -14.44881561 Ry
     estimated scf accuracy    <       0.00000135 Ry

     iteration #  2     ecut=     8.00 Ry     beta= 0.70
     Davidson diagonalization with overlap
     ethr =  1.69E-08,  avg # of iterations =  2.0

     total cpu time spent up to now is        0.3 secs

     total energy              =     -14.44881579 Ry
     estimated scf accuracy    <       0.00000010 Ry

     iteration #  3     ecut=     8.00 Ry     beta= 0.70
     Davidson diagonalization with overlap
     ethr =  1.26E-09,  avg # of iterations =  1.0

     total cpu time spent up to now is        0.3 secs

     End of self-consistent calculation

          k = 0.0000 0.0000 0.0000 (   113 PWs)   bands (ev):

    -4.7622   7.3212   7.3225   7.5422

     highest occupied level (ev):     7.5422

!    total energy              =     -14.44881580 Ry
     estimated scf accuracy    <          4.2E-09 Ry

     convergence has been achieved in   3 iterations

     Forces acting on atoms (cartesian axes, Ry/au):

     atom    1 type  1   force =     0.01375271    0.01394882    0.01394886
     atom    2 type  1   force =    -0.01375271   -0.01394882   -0.01394886

     Total force =     0.034008     Total SCF correction =     0.000022

     Entering Dynamics:    iteration =    18
                           time      =   0.0174 pico-seconds


ATOMIC_POSITIONS (alat)
Si           -0.1264256057       -0.1264489519       -0.1264489553
Si            0.1264256057        0.1264489519        0.1264489553


     kinetic energy (Ekin) =           0.00084160 Ry
     temperature           =          88.58591713 K 
     Ekin + Etot (const)   =         -14.44797419 Ry

     Linear momentum :    0.0000000000    0.0000000000    0.0000000000

     Writing config-only to output data dir ./pwscf.save/
     NEW-OLD atomic charge density approx. for the potential

     total cpu time spent up to now is        0.3 secs

     Self-consistent Calculation

     iteration #  1     ecut=     8.00 Ry     beta= 0.70
     Davidson diagonalization with overlap
     ethr =  1.00E-06,  avg # of iterations =  2.0

     Threshold (ethr) on eigenvalues was too large:
     Diagonalizing with lowered threshold

     Davidson diagonalization with overlap
     ethr =  1.56E-08,  avg # of iterations =  2.0

     total cpu time spent up to now is        0.3 secs

     total energy              =     -14.44863758 Ry
     estimated scf accuracy    <       0.00000110 Ry

     iteration #  2     ecut=     8.00 Ry     beta= 0.70
     Davidson diagonalization with overlap
     ethr =  1.38E-08,  avg # of iterations =  2.0

     total cpu time spent up to now is        0.3 secs

     total energy              =     -14.44863772 Ry
     estimated scf accuracy    <       0.00000008 Ry

     iteration #  3     ecut=     8.00 Ry     beta= 0.70
     Davidson diagonalization with overlap
     ethr =  1.02E-09,  avg # of iterations =  1.0

     total cpu time spent up to now is        0.3 secs

     End of self-consistent calculation

          k = 0.0000 0.0000 0.0000 (   113 PWs)   bands (ev):

    -4.7625   7.3096   7.3114   7.5654

     highest occupied level (ev):     7.5654

!    total energy              =     -14.44863773 Ry
     estimated scf accuracy    <          3.4E-09 Ry

     convergence has been achieved in   3 iterations

     Forces acting on atoms (cartesian axes, Ry/au):

     atom    1 type  1   force =     0.01583345    0.01610334    0.01610338
     atom    2 type  1   force =    -0.01583345   -0.01610334   -0.01610338

     Total force =     0.039226     Total SCF correction =     0.000020

     Entering Dynamics:    iteration =    19
                           time      =   0.0184 pico-seconds


ATOMIC_POSITIONS (alat)
Si           -0.1265915741       -0.1266220099       -0.1266220129
Si            0.1265915741        0.1266220099        0.1266220129


     kinetic energy (Ekin) =           0.00066572 Ry
     temperature           =          70.07269688 K 
     Ekin + Etot (const)   =         -14.44797201 Ry

     Linear momentum :    0.0000000000    0.0000000000    0.0000000000

     Writing config-only to output data dir ./pwscf.save/
     NEW-OLD atomic charge density approx. for the potential

     total cpu time spent up to now is        0.3 secs

     Self-consistent Calculation

     iteration #  1     ecut=     8.00 Ry     beta= 0.70
     Davidson diagonalization with overlap
     ethr =  1.00E-06,  avg # of iterations =  2.0

     Threshold (ethr) on eigenvalues was too large:
     Diagonalizing with lowered threshold

     Davidson diagonalization with overlap
     ethr =  1.19E-08,  avg # of iterations =  2.0

     total cpu time spent up to now is        0.3 secs

     total energy              =     -14.44846102 Ry
     estimated scf accuracy    <       0.00000085 Ry

     iteration #  2     ecut=     8.00 Ry     beta= 0.70
     Davidson diagonalization with overlap
     ethr =  1.06E-08,  avg # of iterations =  2.0

     total cpu time spent up to now is        0.3 secs

     total energy              =     -14.44846113 Ry
     estimated scf accuracy    <       0.00000006 Ry

     iteration #  3     ecut=     8.00 Ry     beta= 0.70
     Davidson diagonalization with overlap
     ethr =  7.78E-10,  avg # of iterations =  1.0

     total cpu time spent up to now is        0.3 secs

     End of self-consistent calculation

          k = 0.0000 0.0000 0.0000 (   113 PWs)   bands (ev):

    -4.7629   7.2994   7.3018   7.5856

     highest occupied level (ev):     7.5856

!    total energy              =     -14.44846113 Ry
     estimated scf accuracy    <          2.6E-09 Ry

     convergence has been achieved in   3 iterations

     Forces acting on atoms (cartesian axes, Ry/au):

     atom    1 type  1   force =     0.01763270    0.01798532    0.01798536
     atom    2 type  1   force =    -0.01763270   -0.01798532   -0.01798536

     Total force =     0.043769     Total SCF correction =     0.000017

     Entering Dynamics:    iteration =    20
                           time      =   0.0194 pico-seconds


ATOMIC_POSITIONS (alat)
Si           -0.1267298914       -0.1267680326       -0.1267680352
Si            0.1267298914        0.1267680326        0.1267680352


     kinetic energy (Ekin) =           0.00049114 Ry
     temperature           =          51.69613461 K 
     Ekin + Etot (const)   =         -14.44797000 Ry

     Linear momentum :    0.0000000000    0.0000000000    0.0000000000

     Writing config-only to output data dir ./pwscf.save/
     NEW-OLD atomic charge density approx. for the potential

     total cpu time spent up to now is        0.3 secs

     Self-consistent Calculation

     iteration #  1     ecut=     8.00 Ry     beta= 0.70
     Davidson diagonalization with overlap
     ethr =  1.00E-06,  avg # of iterations =  2.0

     Threshold (ethr) on eigenvalues was too large:
     Diagonalizing with lowered threshold

     Davidson diagonalization with overlap
     ethr =  8.43E-09,  avg # of iterations =  2.0

     total cpu time spent up to now is        0.3 secs

     total energy              =     -14.44829769 Ry
     estimated scf accuracy    <       0.00000060 Ry

     iteration #  2     ecut=     8.00 Ry     beta= 0.70
     Davidson diagonalization with overlap
     ethr =  7.48E-09,  avg # of iterations =  2.0

     total cpu time spent up to now is        0.3 secs

     total energy              =     -14.44829777 Ry
     estimated scf accuracy    <       0.00000004 Ry

     iteration #  3     ecut=     8.00 Ry     beta= 0.70
     Davidson diagonalization with overlap
     ethr =  5.48E-10,  avg # of iterations =  1.0

     total cpu time spent up to now is        0.3 secs

     End of self-consistent calculation

          k = 0.0000 0.0000 0.0000 (   113 PWs)   bands (ev):

    -4.7632   7.2908   7.2938   7.6026

     highest occupied level (ev):     7.6026

!    total energy              =     -14.44829777 Ry
     estimated scf accuracy    <          1.9E-09 Ry

     convergence has been achieved in   3 iterations

     Forces acting on atoms (cartesian axes, Ry/au):

     atom    1 type  1   force =     0.01912445    0.01956716    0.01956719
     atom    2 type  1   force =    -0.01912445   -0.01956716   -0.01956719

     Total force =     0.047571     Total SCF correction =     0.000015

     Entering Dynamics:    iteration =    21
                           time      =   0.0203 pico-seconds


ATOMIC_POSITIONS (alat)
Si           -0.1268382686       -0.1268845898       -0.1268845919
Si            0.1268382686        0.1268845898        0.1268845919


     kinetic energy (Ekin) =           0.00032954 Ry
     temperature           =          34.68711475 K 
     Ekin + Etot (const)   =         -14.44796823 Ry

     Linear momentum :    0.0000000000    0.0000000000    0.0000000000

     Writing config-only to output data dir ./pwscf.save/
     NEW-OLD atomic charge density approx. for the potential

     total cpu time spent up to now is        0.3 secs

     Self-consistent Calculation

     iteration #  1     ecut=     8.00 Ry     beta= 0.70
     Davidson diagonalization with overlap
     ethr =  1.00E-06,  avg # of iterations =  2.0

     Threshold (ethr) on eigenvalues was too large:
     Diagonalizing with lowered threshold

     Davidson diagonalization with overlap
     ethr =  5.32E-09,  avg # of iterations =  2.0

     total cpu time spent up to now is        0.3 secs

     total energy              =     -14.44815841 Ry
     estimated scf accuracy    <       0.00000038 Ry

     iteration #  2     ecut=     8.00 Ry     beta= 0.70
     Davidson diagonalization with overlap
     ethr =  4.73E-09,  avg # of iterations =  2.0

     total cpu time spent up to now is        0.3 secs

     total energy              =     -14.44815846 Ry
     estimated scf accuracy    <       0.00000003 Ry

     iteration #  3     ecut=     8.00 Ry     beta= 0.70
     Davidson diagonalization with overlap
     ethr =  3.49E-10,  avg # of iterations =  1.0

     total cpu time spent up to now is        0.3 secs

     End of self-consistent calculation

          k = 0.0000 0.0000 0.0000 (   113 PWs)   bands (ev):

    -4.7634   7.2838   7.2875   7.6162

     highest occupied level (ev):     7.6162

!    total energy              =     -14.44815846 Ry
     estimated scf accuracy    <          1.2E-09 Ry

     convergence has been achieved in   3 iterations

     Forces acting on atoms (cartesian axes, Ry/au):

     atom    1 type  1   force =     0.02028780    0.02082635    0.02082637
     atom    2 type  1   force =    -0.02028780   -0.02082635   -0.02082637

     Total force =     0.050578     Total SCF correction =     0.000012

     Entering Dynamics:    iteration =    22
                           time      =   0.0213 pico-seconds


ATOMIC_POSITIONS (alat)
Si           -0.1269149207       -0.1269697471       -0.1269697487
Si            0.1269149207        0.1269697471        0.1269697487


     kinetic energy (Ekin) =           0.00019169 Ry
     temperature           =          20.17708970 K 
     Ekin + Etot (const)   =         -14.44796677 Ry

     Linear momentum :    0.0000000000    0.0000000000    0.0000000000

     Writing config-only to output data dir ./pwscf.save/
     NEW-OLD atomic charge density approx. for the potential

     total cpu time spent up to now is        0.3 secs

     Self-consistent Calculation

     iteration #  1     ecut=     8.00 Ry     beta= 0.70
     Davidson diagonalization with overlap
     ethr =  1.00E-06,  avg # of iterations =  1.0

     Threshold (ethr) on eigenvalues was too large:
     Diagonalizing with lowered threshold

     Davidson diagonalization with overlap
     ethr =  3.12E-09,  avg # of iterations =  2.0

     total cpu time spent up to now is        0.3 secs

     total energy              =     -14.44805234 Ry
     estimated scf accuracy    <       0.00000020 Ry

     iteration #  2     ecut=     8.00 Ry     beta= 0.70
     Davidson diagonalization with overlap
     ethr =  2.47E-09,  avg # of iterations =  2.0

     total cpu time spent up to now is        0.3 secs

     total energy              =     -14.44805237 Ry
     estimated scf accuracy    <       0.00000001 Ry

     iteration #  3     ecut=     8.00 Ry     beta= 0.70
     Davidson diagonalization with overlap
     ethr =  1.81E-10,  avg # of iterations =  1.0

     total cpu time spent up to now is        0.3 secs

     End of self-consistent calculation

          k = 0.0000 0.0000 0.0000 (   113 PWs)   bands (ev):

    -4.7636   7.2787   7.2831   7.6259

     highest occupied level (ev):     7.6259

!    total energy              =     -14.44805237 Ry
     estimated scf accuracy    <          6.2E-10 Ry

     convergence has been achieved in   3 iterations

     Forces acting on atoms (cartesian axes, Ry/au):

     atom    1 type  1   force =     0.02110600    0.02174405    0.02174407
     atom    2 type  1   force =    -0.02110600   -0.02174405   -0.02174407

     Total force =     0.052746     Total SCF correction =     0.000008

     Entering Dynamics:    iteration =    23
                           time      =   0.0223 pico-seconds


ATOMIC_POSITIONS (alat)
Si           -0.1269585923       -0.1270220947       -0.1270220957
Si            0.1269585923        0.1270220947        0.1270220957


     kinetic energy (Ekin) =           0.00008670 Ry
     temperature           =           9.12626040 K 
     Ekin + Etot (const)   =         -14.44796567 Ry

     Linear momentum :    0.0000000000    0.0000000000    0.0000000000

     Writing config-only to output data dir ./pwscf.save/
     NEW-OLD atomic charge density approx. for the potential

     total cpu time spent up to now is        0.3 secs

     Self-consistent Calculation

     iteration #  1     ecut=     8.00 Ry     beta= 0.70
     Davidson diagonalization with overlap
     ethr =  1.00E-06,  avg # of iterations =  1.0

     Threshold (ethr) on eigenvalues was too large:
     Diagonalizing with lowered threshold

     Davidson diagonalization with overlap
     ethr =  1.13E-09,  avg # of iterations =  2.0

     total cpu time spent up to now is        0.3 secs

     total energy              =     -14.44798645 Ry
     estimated scf accuracy    <       0.00000007 Ry

     iteration #  2     ecut=     8.00 Ry     beta= 0.70
     Davidson diagonalization with overlap
     ethr =  8.95E-10,  avg # of iterations =  2.0

     total cpu time spent up to now is        0.3 secs

     End of self-consistent calculation

          k = 0.0000 0.0000 0.0000 (   113 PWs)   bands (ev):

    -4.7637   7.2755   7.2806   7.6319

     highest occupied level (ev):     7.6319

!    total energy              =     -14.44798646 Ry
     estimated scf accuracy    <          5.3E-09 Ry

     convergence has been achieved in   2 iterations

     Forces acting on atoms (cartesian axes, Ry/au):

     atom    1 type  1   force =     0.02157225    0.02231252    0.02231253
     atom    2 type  1   force =    -0.02157225   -0.02231252   -0.02231253

     Total force =     0.054057     Total SCF correction =     0.000013

     Entering Dynamics:    iteration =    24
                           time      =   0.0232 pico-seconds


ATOMIC_POSITIONS (alat)
Si           -0.1269685681       -0.1270407591       -0.1270407595
Si            0.1269685681        0.1270407591        0.1270407595


     kinetic energy (Ekin) =           0.00002149 Ry
     temperature           =           2.26238737 K 
     Ekin + Etot (const)   =         -14.44796496 Ry

     Linear momentum :    0.0000000000    0.0000000000    0.0000000000

     Writing config-only to output data dir ./pwscf.save/
     NEW-OLD atomic charge density approx. for the potential

     total cpu time spent up to now is        0.4 secs

     Self-consistent Calculation

     iteration #  1     ecut=     8.00 Ry     beta= 0.70
     Davidson diagonalization with overlap
     ethr =  1.00E-06,  avg # of iterations =  1.0

     Threshold (ethr) on eigenvalues was too large:
     Diagonalizing with lowered threshold

     Davidson diagonalization with overlap
     ethr =  1.16E-10,  avg # of iterations =  2.0

     total cpu time spent up to now is        0.4 secs

     End of self-consistent calculation

          k = 0.0000 0.0000 0.0000 (   113 PWs)   bands (ev):

    -4.7638   7.2744   7.2801   7.6335

     highest occupied level (ev):     7.6335

!    total energy              =     -14.44796503 Ry
     estimated scf accuracy    <          7.3E-09 Ry

     convergence has been achieved in   1 iterations

     Forces acting on atoms (cartesian axes, Ry/au):

     atom    1 type  1   force =     0.02166998    0.02251154    0.02251155
     atom    2 type  1   force =    -0.02166998   -0.02251154   -0.02251155

     Total force =     0.054463     Total SCF correction =     0.000026

     Entering Dynamics:    iteration =    25
                           time      =   0.0242 pico-seconds


ATOMIC_POSITIONS (alat)
Si           -0.1269446983       -0.1270254345       -0.1270254344
Si            0.1269446983        0.1270254345        0.1270254344


     kinetic energy (Ekin) =           0.00000036 Ry
     temperature           =           0.03758229 K 
     Ekin + Etot (const)   =         -14.44796468 Ry

     Linear momentum :    0.0000000000    0.0000000000    0.0000000000

     Writing config-only to output data dir ./pwscf.save/
     NEW-OLD atomic charge density approx. for the potential

     total cpu time spent up to now is        0.4 secs

     Self-consistent Calculation

     iteration #  1     ecut=     8.00 Ry     beta= 0.70
     Davidson diagonalization with overlap
     ethr =  1.00E-06,  avg # of iterations =  1.0

     Threshold (ethr) on eigenvalues was too large:
     Diagonalizing with lowered threshold

     Davidson diagonalization with overlap
     ethr =  1.94E-10,  avg # of iterations =  2.0

     total cpu time spent up to now is        0.4 secs

     total energy              =     -14.44798950 Ry
     estimated scf accuracy    <       0.00000001 Ry

     iteration #  2     ecut=     8.00 Ry     beta= 0.70
     Davidson diagonalization with overlap
     ethr =  1.64E-10,  avg # of iterations =  2.0

     total cpu time spent up to now is        0.4 secs

     End of self-consistent calculation

          k = 0.0000 0.0000 0.0000 (   113 PWs)   bands (ev):

    -4.7637   7.2750   7.2814   7.6315

     highest occupied level (ev):     7.6315

!    total energy              =     -14.44798950 Ry
     estimated scf accuracy    <          6.9E-10 Ry

     convergence has been achieved in   2 iterations

     Forces acting on atoms (cartesian axes, Ry/au):

     atom    1 type  1   force =     0.02140426    0.02234539    0.02234539
     atom    2 type  1   force =    -0.02140426   -0.02234539   -0.02234539

     Total force =     0.053977     Total SCF correction =     0.000003

     Entering Dynamics:    iteration =    26
                           time      =   0.0252 pico-seconds


ATOMIC_POSITIONS (alat)
Si           -0.1268873909       -0.1269763762       -0.1269763754
Si            0.1268873909        0.1269763762        0.1269763754


     kinetic energy (Ekin) =           0.00002467 Ry
     temperature           =           2.59693371 K 
     Ekin + Etot (const)   =         -14.44796483 Ry

     Linear momentum :    0.0000000000    0.0000000000    0.0000000000

     Writing config-only to output data dir ./pwscf.save/
     NEW-OLD atomic charge density approx. for the potential

     total cpu time spent up to now is        0.4 secs

     Self-consistent Calculation

     iteration #  1     ecut=     8.00 Ry     beta= 0.70
     Davidson diagonalization with overlap
     ethr =  1.00E-06,  avg # of iterations =  1.0

     Threshold (ethr) on eigenvalues was too large:
     Diagonalizing with lowered threshold

     Davidson diagonalization with overlap
     ethr =  1.23E-09,  avg # of iterations =  2.0

     total cpu time spent up to now is        0.4 secs

     total energy              =     -14.44805822 Ry
     estimated scf accuracy    <       0.00000008 Ry

     iteration #  2     ecut=     8.00 Ry     beta= 0.70
     Davidson diagonalization with overlap
     ethr =  9.75E-10,  avg # of iterations =  2.0

     total cpu time spent up to now is        0.4 secs

     End of self-consistent calculation

          k = 0.0000 0.0000 0.0000 (   113 PWs)   bands (ev):

    -4.7636   7.2777   7.2848   7.6253

     highest occupied level (ev):     7.6253

!    total energy              =     -14.44805823 Ry
     estimated scf accuracy    <          5.7E-09 Ry

     convergence has been achieved in   2 iterations

     Forces acting on atoms (cartesian axes, Ry/au):

     atom    1 type  1   force =     0.02078018    0.02181637    0.02181636
     atom    2 type  1   force =    -0.02078018   -0.02181637   -0.02181636

     Total force =     0.052607     Total SCF correction =     0.000013

     Entering Dynamics:    iteration =    27
                           time      =   0.0261 pico-seconds


ATOMIC_POSITIONS (alat)
Si           -0.1267976037       -0.1268943966       -0.1268943953
Si            0.1267976037        0.1268943966        0.1268943953


     kinetic energy (Ekin) =           0.00009282 Ry
     temperature           =           9.76961189 K 
     Ekin + Etot (const)   =         -14.44796542 Ry

     Linear momentum :    0.0000000000    0.0000000000    0.0000000000

     Writing config-only to output data dir ./pwscf.save/
     NEW-OLD atomic charge density approx. for the potential

     total cpu time spent up to now is        0.4 secs

     Self-consistent Calculation

     iteration #  1     ecut=     8.00 Ry     beta= 0.70
     Davidson diagonalization with overlap
     ethr =  1.00E-06,  avg # of iterations =  1.0

     Threshold (ethr) on eigenvalues was too large:
     Diagonalizing with lowered threshold

     Davidson diagonalization with overlap
     ethr =  3.26E-09,  avg # of iterations =  2.0

     total cpu time spent up to now is        0.4 secs

     total energy              =     -14.44816670 Ry
     estimated scf accuracy    <       0.00000021 Ry

     iteration #  2     ecut=     8.00 Ry     beta= 0.70
     Davidson diagonalization with overlap
     ethr =  2.58E-09,  avg # of iterations =  2.0

     total cpu time spent up to now is        0.4 secs

     total energy              =     -14.44816672 Ry
     estimated scf accuracy    <       0.00000002 Ry

     iteration #  3     ecut=     8.00 Ry     beta= 0.70
     Davidson diagonalization with overlap
     ethr =  1.92E-10,  avg # of iterations =  1.0

     total cpu time spent up to now is        0.4 secs

     End of self-consistent calculation

          k = 0.0000 0.0000 0.0000 (   113 PWs)   bands (ev):

    -4.7634   7.2823   7.2900   7.6152

     highest occupied level (ev):     7.6152

!    total energy              =     -14.44816673 Ry
     estimated scf accuracy    <          6.4E-10 Ry

     convergence has been achieved in   3 iterations

     Forces acting on atoms (cartesian axes, Ry/au):

     atom    1 type  1   force =     0.01981414    0.02093921    0.02093920
     atom    2 type  1   force =    -0.01981414   -0.02093921   -0.02093920

     Total force =     0.050389     Total SCF correction =     0.000009

     Entering Dynamics:    iteration =    28
                           time      =   0.0271 pico-seconds


ATOMIC_POSITIONS (alat)
Si           -0.1266768191       -0.1267808433       -0.1267808414
Si            0.1266768191        0.1267808433        0.1267808414


     kinetic energy (Ekin) =           0.00020030 Ry
     temperature           =          21.08359472 K 
     Ekin + Etot (const)   =         -14.44796642 Ry

     Linear momentum :    0.0000000000    0.0000000000    0.0000000000

     Writing config-only to output data dir ./pwscf.save/
     NEW-OLD atomic charge density approx. for the potential

     total cpu time spent up to now is        0.4 secs

     Self-consistent Calculation

     iteration #  1     ecut=     8.00 Ry     beta= 0.70
     Davidson diagonalization with overlap
     ethr =  1.00E-06,  avg # of iterations =  2.0

     Threshold (ethr) on eigenvalues was too large:
     Diagonalizing with lowered threshold

     Davidson diagonalization with overlap
     ethr =  5.53E-09,  avg # of iterations =  2.0

     total cpu time spent up to now is        0.4 secs

     total energy              =     -14.44830781 Ry
     estimated scf accuracy    <       0.00000039 Ry

     iteration #  2     ecut=     8.00 Ry     beta= 0.70
     Davidson diagonalization with overlap
     ethr =  4.92E-09,  avg # of iterations =  2.0

     total cpu time spent up to now is        0.4 secs

     total energy              =     -14.44830786 Ry
     estimated scf accuracy    <       0.00000003 Ry

     iteration #  3     ecut=     8.00 Ry     beta= 0.70
     Davidson diagonalization with overlap
     ethr =  3.62E-10,  avg # of iterations =  1.0

     total cpu time spent up to now is        0.4 secs

     End of self-consistent calculation

          k = 0.0000 0.0000 0.0000 (   113 PWs)   bands (ev):

    -4.7632   7.2887   7.2970   7.6014

     highest occupied level (ev):     7.6014

!    total energy              =     -14.44830786 Ry
     estimated scf accuracy    <          1.3E-09 Ry

     convergence has been achieved in   3 iterations

     Forces acting on atoms (cartesian axes, Ry/au):

     atom    1 type  1   force =     0.01850689    0.01971417    0.01971415
     atom    2 type  1   force =    -0.01850689   -0.01971417   -0.01971415

     Total force =     0.047324     Total SCF correction =     0.000012

     Entering Dynamics:    iteration =    29
                           time      =   0.0281 pico-seconds


ATOMIC_POSITIONS (alat)
Si           -0.1265270434       -0.1266375981       -0.1266375957
Si            0.1265270434        0.1266375981        0.1266375957


     kinetic energy (Ekin) =           0.00034006 Ry
     temperature           =          35.79364150 K 
     Ekin + Etot (const)   =         -14.44796781 Ry

     Linear momentum :    0.0000000000    0.0000000000    0.0000000000

     Writing config-only to output data dir ./pwscf.save/
     NEW-OLD atomic charge density approx. for the potential

     total cpu time spent up to now is        0.4 secs

     Self-consistent Calculation

     iteration #  1     ecut=     8.00 Ry     beta= 0.70
     Davidson diagonalization with overlap
     ethr =  1.00E-06,  avg # of iterations =  2.0

     Threshold (ethr) on eigenvalues was too large:
     Diagonalizing with lowered threshold

     Davidson diagonalization with overlap
     ethr =  8.68E-09,  avg # of iterations =  2.0

     total cpu time spent up to now is        0.4 secs

     total energy              =     -14.44847225 Ry
     estimated scf accuracy    <       0.00000062 Ry

     iteration #  2     ecut=     8.00 Ry     beta= 0.70
     Davidson diagonalization with overlap
     ethr =  7.70E-09,  avg # of iterations =  2.0

     total cpu time spent up to now is        0.4 secs

     total energy              =     -14.44847233 Ry
     estimated scf accuracy    <       0.00000005 Ry

     iteration #  3     ecut=     8.00 Ry     beta= 0.70
     Davidson diagonalization with overlap
     ethr =  5.63E-10,  avg # of iterations =  1.0

     total cpu time spent up to now is        0.4 secs

     End of self-consistent calculation

          k = 0.0000 0.0000 0.0000 (   113 PWs)   bands (ev):

    -4.7629   7.2969   7.3057   7.5841

     highest occupied level (ev):     7.5841

!    total energy              =     -14.44847233 Ry
     estimated scf accuracy    <          1.9E-09 Ry

     convergence has been achieved in   3 iterations

     Forces acting on atoms (cartesian axes, Ry/au):

     atom    1 type  1   force =     0.01688296    0.01816348    0.01816345
     atom    2 type  1   force =    -0.01688296   -0.01816348   -0.01816345

     Total force =     0.043471     Total SCF correction =     0.000015

     Entering Dynamics:    iteration =    30
                           time      =   0.0290 pico-seconds


ATOMIC_POSITIONS (alat)
Si           -0.1263507685       -0.1264670431       -0.1264670402
Si            0.1263507685        0.1264670431        0.1264670402


     kinetic energy (Ekin) =           0.00050280 Ry
     temperature           =          52.92416359 K 
     Ekin + Etot (const)   =         -14.44796953 Ry

     Linear momentum :    0.0000000000    0.0000000000    0.0000000000

     Writing config-only to output data dir ./pwscf.save/
     NEW-OLD atomic charge density approx. for the potential

     total cpu time spent up to now is        0.4 secs

     Self-consistent Calculation

     iteration #  1     ecut=     8.00 Ry     beta= 0.70
     Davidson diagonalization with overlap
     ethr =  1.00E-06,  avg # of iterations =  2.0

     Threshold (ethr) on eigenvalues was too large:
     Diagonalizing with lowered threshold

     Davidson diagonalization with overlap
     ethr =  1.22E-08,  avg # of iterations =  2.0

     total cpu time spent up to now is        0.4 secs

     total energy              =     -14.44864914 Ry
     estimated scf accuracy    <       0.00000086 Ry

     iteration #  2     ecut=     8.00 Ry     beta= 0.70
     Davidson diagonalization with overlap
     ethr =  1.08E-08,  avg # of iterations =  2.0

     total cpu time spent up to now is        0.4 secs

     total energy              =     -14.44864925 Ry
     estimated scf accuracy    <       0.00000006 Ry

     iteration #  3     ecut=     8.00 Ry     beta= 0.70
     Davidson diagonalization with overlap
     ethr =  7.95E-10,  avg # of iterations =  1.0

     total cpu time spent up to now is        0.4 secs

     End of self-consistent calculation

          k = 0.0000 0.0000 0.0000 (   113 PWs)   bands (ev):

    -4.7625   7.3067   7.3159   7.5636

     highest occupied level (ev):     7.5636

!    total energy              =     -14.44864925 Ry
     estimated scf accuracy    <          2.7E-09 Ry

     convergence has been achieved in   3 iterations

     Forces acting on atoms (cartesian axes, Ry/au):

     atom    1 type  1   force =     0.01496496    0.01630862    0.01630858
     atom    2 type  1   force =    -0.01496496   -0.01630862   -0.01630858

     Total force =     0.038882     Total SCF correction =     0.000017

     Entering Dynamics:    iteration =    31
                           time      =   0.0300 pico-seconds


ATOMIC_POSITIONS (alat)
Si           -0.1261509378       -0.1262720277       -0.1262720244
Si            0.1261509378        0.1262720277        0.1262720244


     kinetic energy (Ekin) =           0.00067771 Ry
     temperature           =          71.33433668 K 
     Ekin + Etot (const)   =         -14.44797155 Ry

     Linear momentum :    0.0000000000    0.0000000000    0.0000000000

     Writing config-only to output data dir ./pwscf.save/
     NEW-OLD atomic charge density approx. for the potential

     total cpu time spent up to now is        0.5 secs

     Self-consistent Calculation

     iteration #  1     ecut=     8.00 Ry     beta= 0.70
     Davidson diagonalization with overlap
     ethr =  1.00E-06,  avg # of iterations =  2.0

     Threshold (ethr) on eigenvalues was too large:
     Diagonalizing with lowered threshold

     Davidson diagonalization with overlap
     ethr =  1.58E-08,  avg # of iterations =  2.0

     total cpu time spent up to now is        0.5 secs

     total energy              =     -14.44882667 Ry
     estimated scf accuracy    <       0.00000112 Ry

     iteration #  2     ecut=     8.00 Ry     beta= 0.70
     Davidson diagonalization with overlap
     ethr =  1.40E-08,  avg # of iterations =  2.0

     total cpu time spent up to now is        0.5 secs

     total energy              =     -14.44882682 Ry
     estimated scf accuracy    <       0.00000008 Ry

     iteration #  3     ecut=     8.00 Ry     beta= 0.70
     Davidson diagonalization with overlap
     ethr =  1.04E-09,  avg # of iterations =  1.0

     total cpu time spent up to now is        0.5 secs

     End of self-consistent calculation

          k = 0.0000 0.0000 0.0000 (   113 PWs)   bands (ev):

    -4.7622   7.3180   7.3276   7.5403

     highest occupied level (ev):     7.5403

!    total energy              =     -14.44882683 Ry
     estimated scf accuracy    <          3.5E-09 Ry

     convergence has been achieved in   3 iterations

     Forces acting on atoms (cartesian axes, Ry/au):

     atom    1 type  1   force =     0.01278141    0.01417700    0.01417697
     atom    2 type  1   force =    -0.01278141   -0.01417700   -0.01417697

     Total force =     0.033626     Total SCF correction =     0.000020

     Entering Dynamics:    iteration =    32
                           time      =   0.0310 pico-seconds


ATOMIC_POSITIONS (alat)
Si           -0.1259309021       -0.1260558265       -0.1260558229
Si            0.1259309021        0.1260558265        0.1260558229


     kinetic energy (Ekin) =           0.00085304 Ry
     temperature           =          89.78962334 K 
     Ekin + Etot (const)   =         -14.44797379 Ry

     Linear momentum :    0.0000000000    0.0000000000    0.0000000000

     Writing config-only to output data dir ./pwscf.save/
     NEW-OLD atomic charge density approx. for the potential

     total cpu time spent up to now is        0.5 secs

     Self-consistent Calculation

     iteration #  1     ecut=     8.00 Ry     beta= 0.70
[...]

     total cpu time spent up to now is        0.6 secs

     Self-consistent Calculation

     iteration #  1     ecut=     8.00 Ry     beta= 0.70
     Davidson diagonalization with overlap
     ethr =  1.00E-06,  avg # of iterations =  2.0

     Threshold (ethr) on eigenvalues was too large:
     Diagonalizing with lowered threshold

     Davidson diagonalization with overlap
     ethr =  1.60E-08,  avg # of iterations =  2.0

     total cpu time spent up to now is        0.6 secs

     total energy              =     -14.44864913 Ry
     estimated scf accuracy    <       0.00000112 Ry

     iteration #  2     ecut=     8.00 Ry     beta= 0.70
     Davidson diagonalization with overlap
     ethr =  1.40E-08,  avg # of iterations =  2.0

     total cpu time spent up to now is        0.6 secs

     total energy              =     -14.44864928 Ry
     estimated scf accuracy    <       0.00000009 Ry

     iteration #  3     ecut=     8.00 Ry     beta= 0.70
     Davidson diagonalization with overlap
     ethr =  1.12E-09,  avg # of iterations =  1.0

     total cpu time spent up to now is        0.6 secs

     End of self-consistent calculation

          k = 0.0000 0.0000 0.0000 (   113 PWs)   bands (ev):

    -4.7626   7.2295   7.4749   7.4818

     highest occupied level (ev):     7.4818

!    total energy              =     -14.44864928 Ry
     estimated scf accuracy    <          3.2E-09 Ry

     convergence has been achieved in   3 iterations

     Forces acting on atoms (cartesian axes, Ry/au):

     atom    1 type  1   force =    -0.01695620   -0.01596706   -0.01596710
     atom    2 type  1   force =     0.01695620    0.01596706    0.01596710

     Total force =     0.039935     Total SCF correction =     0.000017

     Entering Dynamics:    iteration =    43
                           time      =   0.0416 pico-seconds


ATOMIC_POSITIONS (alat)
Si           -0.1233645865       -0.1234405754       -0.1234405724
Si            0.1233645865        0.1234405754        0.1234405724


     kinetic energy (Ekin) =           0.00069373 Ry
     temperature           =          73.02035802 K 
     Ekin + Etot (const)   =         -14.44795556 Ry

     Linear momentum :    0.0000000000    0.0000000000    0.0000000000

     Writing config-only to output data dir ./pwscf.save/
     NEW-OLD atomic charge density approx. for the potential

     total cpu time spent up to now is        0.7 secs

     Self-consistent Calculation

     iteration #  1     ecut=     8.00 Ry     beta= 0.70
     Davidson diagonalization with overlap
     ethr =  1.00E-06,  avg # of iterations =  2.0

     Threshold (ethr) on eigenvalues was too large:
     Diagonalizing with lowered threshold

     Davidson diagonalization with overlap
     ethr =  1.23E-08,  avg # of iterations =  2.0

     total cpu time spent up to now is        0.7 secs

     total energy              =     -14.44846483 Ry
     estimated scf accuracy    <       0.00000086 Ry

     iteration #  2     ecut=     8.00 Ry     beta= 0.70
     Davidson diagonalization with overlap
     ethr =  1.08E-08,  avg # of iterations =  2.0

     total cpu time spent up to now is        0.7 secs

     total energy              =     -14.44846494 Ry
     estimated scf accuracy    <       0.00000007 Ry

     iteration #  3     ecut=     8.00 Ry     beta= 0.70
     Davidson diagonalization with overlap
     ethr =  8.66E-10,  avg # of iterations =  1.0

     total cpu time spent up to now is        0.7 secs

     End of self-consistent calculation

          k = 0.0000 0.0000 0.0000 (   113 PWs)   bands (ev):

    -4.7629   7.2092   7.4858   7.4916

     highest occupied level (ev):     7.4916

!    total energy              =     -14.44846495 Ry
     estimated scf accuracy    <          2.5E-09 Ry

     convergence has been achieved in   3 iterations

     Forces acting on atoms (cartesian axes, Ry/au):

     atom    1 type  1   force =    -0.01891730   -0.01807566   -0.01807569
     atom    2 type  1   force =     0.01891730    0.01807566    0.01807569

     Total force =     0.044974     Total SCF correction =     0.000015

     Entering Dynamics:    iteration =    44
                           time      =   0.0426 pico-seconds


ATOMIC_POSITIONS (alat)
Si           -0.1232273984       -0.1232890175       -0.1232890150
Si            0.1232273984        0.1232890175        0.1232890150


     kinetic energy (Ekin) =           0.00051391 Ry
     temperature           =          54.09378837 K 
     Ekin + Etot (const)   =         -14.44795103 Ry

     Linear momentum :    0.0000000000    0.0000000000    0.0000000000

     Writing config-only to output data dir ./pwscf.save/
     NEW-OLD atomic charge density approx. for the potential

     total cpu time spent up to now is        0.7 secs

     Self-consistent Calculation

     iteration #  1     ecut=     8.00 Ry     beta= 0.70
     Davidson diagonalization with overlap
     ethr =  1.00E-06,  avg # of iterations =  2.0

     Threshold (ethr) on eigenvalues was too large:
     Diagonalizing with lowered threshold

     Davidson diagonalization with overlap
     ethr =  8.70E-09,  avg # of iterations =  2.0

     total cpu time spent up to now is        0.7 secs

     total energy              =     -14.44829271 Ry
     estimated scf accuracy    <       0.00000061 Ry

     iteration #  2     ecut=     8.00 Ry     beta= 0.70
     Davidson diagonalization with overlap
     ethr =  7.61E-09,  avg # of iterations =  2.0

     total cpu time spent up to now is        0.7 secs

     total energy              =     -14.44829279 Ry
     estimated scf accuracy    <       0.00000005 Ry

     iteration #  3     ecut=     8.00 Ry     beta= 0.70
     Davidson diagonalization with overlap
     ethr =  6.16E-10,  avg # of iterations =  1.0

     total cpu time spent up to now is        0.7 secs

     End of self-consistent calculation

          k = 0.0000 0.0000 0.0000 (   113 PWs)   bands (ev):

    -4.7632   7.1922   7.4950   7.4998

     highest occupied level (ev):     7.4998

!    total energy              =     -14.44829279 Ry
     estimated scf accuracy    <          1.7E-09 Ry

     convergence has been achieved in   3 iterations

     Forces acting on atoms (cartesian axes, Ry/au):

     atom    1 type  1   force =    -0.02055106   -0.01987020   -0.01987022
     atom    2 type  1   force =     0.02055106    0.01987020    0.01987022

     Total force =     0.049234     Total SCF correction =     0.000013

     Entering Dynamics:    iteration =    45
                           time      =   0.0435 pico-seconds


ATOMIC_POSITIONS (alat)
Si           -0.1231212188       -0.1231674228       -0.1231674208
Si            0.1231212188        0.1231674228        0.1231674208


     kinetic energy (Ekin) =           0.00034562 Ry
     temperature           =          36.37962501 K 
     Ekin + Etot (const)   =         -14.44794717 Ry

     Linear momentum :    0.0000000000    0.0000000000    0.0000000000

     Writing config-only to output data dir ./pwscf.save/
     NEW-OLD atomic charge density approx. for the potential

     total cpu time spent up to now is        0.7 secs

     Self-consistent Calculation

     iteration #  1     ecut=     8.00 Ry     beta= 0.70
     Davidson diagonalization with overlap
     ethr =  1.00E-06,  avg # of iterations =  2.0

     Threshold (ethr) on eigenvalues was too large:
     Diagonalizing with lowered threshold

     Davidson diagonalization with overlap
     ethr =  5.47E-09,  avg # of iterations =  2.0

     total cpu time spent up to now is        0.7 secs

     total energy              =     -14.44814501 Ry
     estimated scf accuracy    <       0.00000038 Ry

     iteration #  2     ecut=     8.00 Ry     beta= 0.70
     Davidson diagonalization with overlap
     ethr =  4.80E-09,  avg # of iterations =  2.0

     total cpu time spent up to now is        0.7 secs

     total energy              =     -14.44814506 Ry
     estimated scf accuracy    <       0.00000003 Ry

     iteration #  3     ecut=     8.00 Ry     beta= 0.70
     Davidson diagonalization with overlap
     ethr =  3.94E-10,  avg # of iterations =  1.0

     total cpu time spent up to now is        0.7 secs

     End of self-consistent calculation

          k = 0.0000 0.0000 0.0000 (   113 PWs)   bands (ev):

    -4.7635   7.1786   7.5026   7.5061

     highest occupied level (ev):     7.5061

!    total energy              =     -14.44814506 Ry
     estimated scf accuracy    <          1.1E-09 Ry

     convergence has been achieved in   3 iterations

     Forces acting on atoms (cartesian axes, Ry/au):

     atom    1 type  1   force =    -0.02182325   -0.02131394   -0.02131396
     atom    2 type  1   force =     0.02182325    0.02131394    0.02131396

     Total force =     0.052627     Total SCF correction =     0.000010

     Entering Dynamics:    iteration =    46
                           time      =   0.0445 pico-seconds


ATOMIC_POSITIONS (alat)
Si           -0.1230480041       -0.1230780110       -0.1230780096
Si            0.1230480041        0.1230780110        0.1230780096


     kinetic energy (Ekin) =           0.00020100 Ry
     temperature           =          21.15728340 K 
     Ekin + Etot (const)   =         -14.44794406 Ry

     Linear momentum :    0.0000000000    0.0000000000    0.0000000000

     Writing config-only to output data dir ./pwscf.save/
     NEW-OLD atomic charge density approx. for the potential

     total cpu time spent up to now is        0.7 secs

     Self-consistent Calculation

     iteration #  1     ecut=     8.00 Ry     beta= 0.70
     Davidson diagonalization with overlap
     ethr =  1.00E-06,  avg # of iterations =  1.0

     Threshold (ethr) on eigenvalues was too large:
     Diagonalizing with lowered threshold

     Davidson diagonalization with overlap
     ethr =  3.26E-09,  avg # of iterations =  2.0

     total cpu time spent up to now is        0.7 secs

     total energy              =     -14.44803233 Ry
     estimated scf accuracy    <       0.00000020 Ry

     iteration #  2     ecut=     8.00 Ry     beta= 0.70
     Davidson diagonalization with overlap
     ethr =  2.50E-09,  avg # of iterations =  2.0

     total cpu time spent up to now is        0.7 secs

     total energy              =     -14.44803235 Ry
     estimated scf accuracy    <       0.00000002 Ry

     iteration #  3     ecut=     8.00 Ry     beta= 0.70
     Davidson diagonalization with overlap
     ethr =  2.05E-10,  avg # of iterations =  1.0

     total cpu time spent up to now is        0.7 secs

     End of self-consistent calculation

          k = 0.0000 0.0000 0.0000 (   113 PWs)   bands (ev):

    -4.7638   7.1689   7.5082   7.5105

     highest occupied level (ev):     7.5105

!    total energy              =     -14.44803236 Ry
     estimated scf accuracy    <          5.7E-10 Ry

     convergence has been achieved in   3 iterations

     Forces acting on atoms (cartesian axes, Ry/au):

     atom    1 type  1   force =    -0.02270651   -0.02237637   -0.02237638
     atom    2 type  1   force =     0.02270651    0.02237637    0.02237638

     Total force =     0.055082     Total SCF correction =     0.000007

     Entering Dynamics:    iteration =    47
                           time      =   0.0455 pico-seconds


ATOMIC_POSITIONS (alat)
Si           -0.1230091129       -0.1230224160       -0.1230224150
Si            0.1230091129        0.1230224160        0.1230224150


     kinetic energy (Ekin) =           0.00009056 Ry
     temperature           =           9.53266866 K 
     Ekin + Etot (const)   =         -14.44794179 Ry

     Linear momentum :    0.0000000000    0.0000000000    0.0000000000

     Writing config-only to output data dir ./pwscf.save/
     NEW-OLD atomic charge density approx. for the potential

     total cpu time spent up to now is        0.7 secs

     Self-consistent Calculation

     iteration #  1     ecut=     8.00 Ry     beta= 0.70
     Davidson diagonalization with overlap
     ethr =  1.00E-06,  avg # of iterations =  1.0

     Threshold (ethr) on eigenvalues was too large:
     Diagonalizing with lowered threshold

     Davidson diagonalization with overlap
     ethr =  1.17E-09,  avg # of iterations =  2.0

     total cpu time spent up to now is        0.7 secs

     total energy              =     -14.44796278 Ry
     estimated scf accuracy    <       0.00000007 Ry

     iteration #  2     ecut=     8.00 Ry     beta= 0.70
     Davidson diagonalization with overlap
     ethr =  9.01E-10,  avg # of iterations =  2.0

     total cpu time spent up to now is        0.7 secs

     End of self-consistent calculation

          k = 0.0000 0.0000 0.0000 (   113 PWs)   bands (ev):

    -4.7639   7.1630   7.5118   7.5129

     highest occupied level (ev):     7.5129

!    total energy              =     -14.44796279 Ry
     estimated scf accuracy    <          5.9E-09 Ry

     convergence has been achieved in   2 iterations

     Forces acting on atoms (cartesian axes, Ry/au):

     atom    1 type  1   force =    -0.02318492   -0.02304031   -0.02304032
     atom    2 type  1   force =     0.02318492    0.02304031    0.02304032

     Total force =     0.056555     Total SCF correction =     0.000015

     Entering Dynamics:    iteration =    48
                           time      =   0.0464 pico-seconds


ATOMIC_POSITIONS (alat)
Si           -0.1230052813       -0.1230016583       -0.1230016580
Si            0.1230052813        0.1230016583        0.1230016580


     kinetic energy (Ekin) =           0.00002236 Ry
     temperature           =           2.35336112 K 
     Ekin + Etot (const)   =         -14.44794043 Ry

     Linear momentum :    0.0000000000    0.0000000000    0.0000000000

     Writing config-only to output data dir ./pwscf.save/
     NEW-OLD atomic charge density approx. for the potential

     total cpu time spent up to now is        0.8 secs

     Self-consistent Calculation

     iteration #  1     ecut=     8.00 Ry     beta= 0.70
     Davidson diagonalization with overlap
     ethr =  1.00E-06,  avg # of iterations =  2.0

     Threshold (ethr) on eigenvalues was too large:
     Diagonalizing with lowered threshold

     Davidson diagonalization with overlap
     ethr =  1.20E-10,  avg # of iterations =  2.0

     total cpu time spent up to now is        0.8 secs

     End of self-consistent calculation

          k = 0.0000 0.0000 0.0000 (   113 PWs)   bands (ev):

    -4.7639   7.1615   7.5131   7.5133

     highest occupied level (ev):     7.5133

!    total energy              =     -14.44794141 Ry
     estimated scf accuracy    <          8.1E-09 Ry

     convergence has been achieved in   1 iterations

     Forces acting on atoms (cartesian axes, Ry/au):

     atom    1 type  1   force =    -0.02323830   -0.02328047   -0.02328048
     atom    2 type  1   force =     0.02323830    0.02328047    0.02328048

     Total force =     0.056991     Total SCF correction =     0.000028

     Entering Dynamics:    iteration =    49
                           time      =   0.0474 pico-seconds


ATOMIC_POSITIONS (alat)
Si           -0.1230365914       -0.1230161072       -0.1230161075
Si            0.1230365914        0.1230161072        0.1230161075


     kinetic energy (Ekin) =           0.00000138 Ry
     temperature           =           0.14566575 K 
     Ekin + Etot (const)   =         -14.44794003 Ry

     Linear momentum :    0.0000000000    0.0000000000    0.0000000000

     Writing config-only to output data dir ./pwscf.save/
     NEW-OLD atomic charge density approx. for the potential

     total cpu time spent up to now is        0.8 secs

     Self-consistent Calculation

     iteration #  1     ecut=     8.00 Ry     beta= 0.70
     Davidson diagonalization with overlap
     ethr =  1.00E-06,  avg # of iterations =  1.0

     Threshold (ethr) on eigenvalues was too large:
     Diagonalizing with lowered threshold

     Davidson diagonalization with overlap
     ethr =  2.44E-10,  avg # of iterations =  2.0

     total cpu time spent up to now is        0.8 secs

     total energy              =     -14.44796975 Ry
     estimated scf accuracy    <       0.00000002 Ry

     iteration #  2     ecut=     8.00 Ry     beta= 0.70
     Davidson diagonalization with overlap
     ethr =  1.96E-10,  avg # of iterations =  2.0

     total cpu time spent up to now is        0.8 secs

     End of self-consistent calculation

          k = 0.0000 0.0000 0.0000 (   113 PWs)   bands (ev):

    -4.7639   7.1637   7.5112   7.5128

     highest occupied level (ev):     7.5128

!    total energy              =     -14.44796975 Ry
     estimated scf accuracy    <          1.0E-09 Ry

     convergence has been achieved in   2 iterations

     Forces acting on atoms (cartesian axes, Ry/au):

     atom    1 type  1   force =    -0.02286871   -0.02309682   -0.02309682
     atom    2 type  1   force =     0.02286871    0.02309682    0.02309682

     Total force =     0.056390     Total SCF correction =     0.000005

     Entering Dynamics:    iteration =    50
                           time      =   0.0484 pico-seconds


ATOMIC_POSITIONS (alat)
Si           -0.1231024754       -0.1230654803       -0.1230654811
Si            0.1231024754        0.1230654803        0.1230654811


     kinetic energy (Ekin) =           0.00002917 Ry
     temperature           =           3.07043835 K 
     Ekin + Etot (const)   =         -14.44794058 Ry

     Linear momentum :    0.0000000000    0.0000000000    0.0000000000

     The maximum number of steps has been reached.

     End of molecular dynamics calculation

     diffusion coefficients :
     atom     1   D =       0.00000000 cm^2/s
     atom     2   D =       0.00000000 cm^2/s

     < D > =       0.00000000 cm^2/s

     Writing all to output data dir ./pwscf.save/

     init_run     :      0.01s CPU      0.01s WALL (       1 calls)
     electrons    :      0.24s CPU      0.25s WALL (      50 calls)
     update_pot   :      0.04s CPU      0.04s WALL (      49 calls)
     forces       :      0.03s CPU      0.03s WALL (      50 calls)

     Called by init_run:
     wfcinit      :      0.00s CPU      0.00s WALL (       1 calls)
     potinit      :      0.00s CPU      0.00s WALL (       1 calls)
     hinit0       :      0.01s CPU      0.01s WALL (       1 calls)

     Called by electrons:
     c_bands      :      0.14s CPU      0.14s WALL (     195 calls)
     sum_band     :      0.04s CPU      0.04s WALL (     195 calls)
     v_of_rho     :      0.04s CPU      0.04s WALL (     196 calls)
     mix_rho      :      0.01s CPU      0.01s WALL (     195 calls)

     Called by c_bands:
     init_us_2    :      0.01s CPU      0.01s WALL (     391 calls)
     init_us_2:cp :      0.01s CPU      0.01s WALL (     391 calls)
     cegterg      :      0.13s CPU      0.13s WALL (     195 calls)

     Called by *egterg:
     cdiaghg      :      0.01s CPU      0.01s WALL (     426 calls)
     h_psi        :      0.10s CPU      0.10s WALL (     525 calls)
     g_psi        :      0.00s CPU      0.00s WALL (     329 calls)

     Called by h_psi:
     h_psi:calbec :      0.00s CPU      0.00s WALL (     525 calls)
     vloc_psi     :      0.09s CPU      0.09s WALL (     525 calls)
     add_vuspsi   :      0.00s CPU      0.00s WALL (     525 calls)

     General routines
     calbec       :      0.00s CPU      0.00s WALL (     725 calls)
     fft          :      0.03s CPU      0.03s WALL (     736 calls)
     ffts         :      0.01s CPU      0.01s WALL (     195 calls)
     fftw         :      0.09s CPU      0.10s WALL (    4454 calls)

     Parallel routines

     PWSCF        :      0.77s CPU      0.79s WALL


   This run was terminated on:  14:45:20  12Mar2022            

=------------------------------------------------------------------------------=
   JOB DONE.
=------------------------------------------------------------------------------=
